 Gaussian 09, Revision A.01,
 Gaussian 09:  EM64L-G09RevA.01  8-May-2009

 -------------------------------------
 #p rb3lyp/6-31+g(d,p) sp volume polar
 -------------------------------------

 -------------------
 Title Card Required
 -------------------
 Symbolic Z-matrix:
 Charge =  0 Multiplicity = 1

                         Standard orientation:
 ---------------------------------------------------------------------
 Center     Atomic      Atomic             Coordinates (Angstroms)
 Number     Number       Type             X           Y           Z
 ---------------------------------------------------------------------
      1          8           0        0.000000    0.000000    0.116494
      2          1           0        0.000000    0.769475   -0.465976
      3          1           0        0.000000   -0.769475   -0.465976
 ---------------------------------------------------------------------

 SCF Done:  E(RB3LYP) =  -76.4340476905     A.U. after   10 cycles

 The electronic state is 1-A1.
 Alpha  occ. eigenvalues --  -19.16961  -1.02230  -0.54232  -0.39423  -0.32104
 Alpha virt. eigenvalues --    0.02515   0.11450   0.15506   0.15506   0.20614
 Alpha virt. eigenvalues --    0.24194   0.90043   0.98867   1.08841   1.11265
 Alpha virt. eigenvalues --    1.12670   1.23128   1.50293   1.53637   1.63048

 Mulliken atomic charges:
              1
     1  O   -0.711925
     2  H    0.355962
     3  H    0.355962
 Sum of Mulliken atomic charges =   0.00000

 Dipole moment (field-independent basis, Debye):
    X=              0.0000    Y=              0.0000    Z=             -2.1950  Tot=              2.1950
 Quadrupole moment (field-independent basis, Debye-Ang):
   XX=             -7.8841   YY=             -4.3755   ZZ=             -6.5377
   XY=              0.0000   XZ=              0.0000   YZ=              0.0000

  Exact polarizability:   6.677   0.000   7.842   0.000   0.000   6.578
 Approx polarizability:   6.823   0.000   9.672   0.000   0.000   7.659

 Normal termination of Gaussian 09 at Wed Oct 17 13:49:01 2012.
