 Gaussian 09, Revision A.01,
 Gaussian 09:  EM64L-G09RevA.01  8-May-2009

 ----------------------------------------------------------
 #p rb3lyp/6-31+g(d,p) opt freq scrf=(iefpcm,solvent=water)
 ----------------------------------------------------------

 -------------------
 Title Card Required
 -------------------
 Symbolic Z-matrix:
 Charge =  0 Multiplicity = 1

 SCF Done:  E(RB3LYP) =  -76.4422559505     A.U. after    8 cycles
 SCF Done:  E(RB3LYP) =  -76.4422989790     A.U. after    7 cycles
 SCF Done:  E(RB3LYP) =  -76.4422998233     A.U. after    6 cycles
 Optimization completed.
    -- Stationary point found.

 1\1\GINC-LOCALHOST\FOpt\RB3LYP\6-31+G(d,p)\H2O1\EST863\17-Oct-2012\0\\
 #p rb3lyp/6-31+g(d,p) opt freq scrf=(iefpcm,solvent=water)\\Title Card
  Required\\0,1\O,0.,0.,0.1194119855\H,0.,0.7668429164,-0.4693504927\H,
 0.,-0.7668429164,-0.4693504927\\Version=EM64L-G09RevA.01\State=1-A1\HF
 =-76.4422998\RMSD=2.195e-09\RMSF=1.441e-05\Dipole=0.,0.,-0.9689851\Qua
 drupole=-1.2569793,1.4481595,-0.1911802,0.,0.,0.\PG=C02V [C2(O1),SGV(H
 2)]\\@

 Normal termination of Gaussian 09 at Wed Oct 17 12:53:34 2012.

 ----------------------------------------------------------------------
 #P Geom=AllCheck Guess=TCheck SCRF=Check GenChk RB3LYP/6-31+G(d,p) Fre
 q
 ----------------------------------------------------------------------

 Title Card Required
 -------------------
 Redundant internal coordinates taken from checkpoint file:
 WATERopt.chk
 Charge =  0 Multiplicity = 1

                         Standard orientation:
 ---------------------------------------------------------------------
 Center     Atomic      Atomic             Coordinates (Angstroms)
 Number     Number       Type             X           Y           Z
 ---------------------------------------------------------------------
      1          8           0        0.000000    0.000000    0.117752
      2          1           0        0.000000    0.766843   -0.471010
      3          1           0        0.000000   -0.766843   -0.471010
 ---------------------------------------------------------------------

 SCF Done:  E(RB3LYP) =  -76.4422998233     A.U. after    1 cycles

 The electronic state is 1-A1.
 Alpha  occ. eigenvalues --  -19.17188  -1.02233  -0.53936  -0.40147  -0.32609
 Alpha virt. eigenvalues --    0.03373   0.12034   0.13929   0.14629   0.20501
 Alpha virt. eigenvalues --    0.24800   0.90703   0.99782   1.08285   1.10646
 Alpha virt. eigenvalues --    1.12658   1.22525   1.50451   1.52752   1.62362

 Mulliken atomic charges:
              1
     1  O   -0.770239
     2  H    0.385120
     3  H    0.385120
 Sum of Mulliken atomic charges =   0.00000

 Dipole moment (field-independent basis, Debye):
    X=              0.0000    Y=              0.0000    Z=             -2.4629  Tot=              2.4629
 Quadrupole moment (field-independent basis, Debye-Ang):
   XX=             -7.9455   YY=             -4.3070   ZZ=             -6.5119
   XY=              0.0000   XZ=              0.0000   YZ=              0.0000

  Exact polarizability:   7.565   0.000   8.493   0.000   0.000   7.194
 Approx polarizability:   6.937   0.000   9.344   0.000   0.000   7.478

                     1                      2                      3
                    A1                     A1                     B2
 Frequencies --  1606.6638              3797.9041              3901.0346
 Red. masses --     1.0827                 1.0452                 1.0823
 Frc consts  --     1.6466                 8.8823                 9.7043
 IR Inten    --   119.8264                23.6435               106.1167

 - Thermochemistry -
 -------------------
 Temperature   298.150 Kelvin.  Pressure   1.00000 Atm.
 Atom     1 has atomic number  8 and mass  15.99491

 Molecular mass:    18.01056 amu.
 Principal axes and moments of inertia in atomic units:
                           1         2         3
     Eigenvalues --     2.21589   4.23278   6.44867
           X            0.00000   0.00000   1.00000
           Y            1.00000   0.00000   0.00000
           Z            0.00000   1.00000   0.00000
 This molecule is an asymmetric top.
 Rotational symmetry number  2.
 Rotational temperatures (Kelvin)     39.08764    20.46263    13.43127
 Rotational constants (GHZ):         814.45522   426.37255   279.86265
 Zero-point vibrational energy      55659.9 (Joules/Mol)
                                   13.30303 (Kcal/Mol)
 Vibrational temperatures:   2311.63  5464.33  5612.71
          (Kelvin)

 Zero-point correction=                           0.021200 (Hartree/Particle)
 Thermal correction to Energy=                    0.024035
 Thermal correction to Enthalpy=                  0.024980
 Thermal correction to Gibbs Free Energy=         0.003543
 Sum of electronic and zero-point Energies=            -76.421100
 Sum of electronic and thermal Energies=               -76.418264
 Sum of electronic and thermal Enthalpies=             -76.417320
 Sum of electronic and thermal Free Energies=          -76.438757

                     E (Thermal)             CV                S
                      KCal/Mol        Cal/Mol-Kelvin    Cal/Mol-Kelvin
 Total                   15.082              6.013             45.117
 Electronic               0.000              0.000              0.000
 Translational            0.889              2.981             34.608
 Rotational               0.889              2.981             10.502
 Vibrational             13.305              0.051              0.007

 Optimization completed.
    -- Stationary point found.

 1\1\GINC-LOCALHOST\Freq\RB3LYP\6-31+G(d,p)\H2O1\EST863\17-Oct-2012\0\\
 #P Geom=AllCheck Guess=TCheck SCRF=Check GenChk RB3LYP/6-31+G(d,p) Fre
 q\\Title Card Required\\0,1\O,0.,0.,0.1194119855\H,0.,0.7668429164,-0.
 4693504927\H,0.,-0.7668429164,-0.4693504927\\Version=EM64L-G09RevA.01\
 State=1-A1\HF=-76.4422998\RMSD=2.126e-10\RMSF=1.441e-05\ZeroPoint=0.02
 11997\Thermal=0.0240354\Dipole=0.,0.,-0.9689851\DipoleDeriv=-0.8712322
 ,0.,0.,0.,-0.6571194,0.,0.,0.,-0.5024853,0.4356161,0.,0.,0.,0.3285597,
 0.0555125,0.,0.0823305,0.2512427,0.4356161,0.,0.,0.,0.3285597,-0.05551

 Normal termination of Gaussian 09 at Wed Oct 17 12:53:41 2012.
