 Gaussian 09, Revision A.01,
 Gaussian 09:  EM64L-G09RevA.01  8-May-2009

 -------------------------------------
 #p rb3lyp/6-31+g(d,p) sp volume polar
 -------------------------------------

 -------------------
 Title Card Required
 -------------------
 Symbolic Z-matrix:
 Charge =  0 Multiplicity = 1

                         Standard orientation:
 ---------------------------------------------------------------------
 Center     Atomic      Atomic             Coordinates (Angstroms)
 Number     Number       Type             X           Y           Z
 ---------------------------------------------------------------------
      1          8           0        0.000000    0.000000    0.116390
      2          1           0        0.000000    0.770215   -0.465562
      3          1           0        0.000000   -0.770215   -0.465562
 ---------------------------------------------------------------------

 SCF Done:  E(RB3LYP) =  -76.4340472397     A.U. after   10 cycles

 The electronic state is 1-A1.
 Alpha  occ. eigenvalues --  -19.16961  -1.02210  -0.54240  -0.39402  -0.32100
 Alpha virt. eigenvalues --    0.02514   0.11443   0.15505   0.15506   0.20617
 Alpha virt. eigenvalues --    0.24166   0.90047   0.98822   1.08862   1.11267
 Alpha virt. eigenvalues --    1.12643   1.23117   1.50270   1.53707   1.63079

 Mulliken atomic charges:
              1
     1  O   -0.712199
     2  H    0.356100
     3  H    0.356100
 Sum of Mulliken atomic charges =   0.00000

 Dipole moment (field-independent basis, Debye):
    X=              0.0000    Y=              0.0000    Z=             -2.1935  Tot=              2.1935
 Quadrupole moment (field-independent basis, Debye-Ang):
   XX=             -7.8851   YY=             -4.3703   ZZ=             -6.5412
   XY=              0.0000   XZ=              0.0000   YZ=              0.0000

  Exact polarizability:   6.676   0.000   7.850   0.000   0.000   6.578
 Approx polarizability:   6.823   0.000   9.685   0.000   0.000   7.658

 Normal termination of Gaussian 09 at Wed Oct 17 12:53:40 2012.
