 Gaussian 09, Revision A.01,
 Gaussian 09:  EM64L-G09RevA.01  8-May-2009

 ------------------------------------
 #p rb3lyp/6-31+g(d,p) opt freq polar
 ------------------------------------

 -------------------
 Title Card Required
 -------------------
 Symbolic Z-matrix:
 Charge =  0 Multiplicity = 1

 SCF Done:  E(RB3LYP) =  -76.4340138027     A.U. after   10 cycles
 SCF Done:  E(RB3LYP) =  -76.4340472398     A.U. after    7 cycles
 SCF Done:  E(RB3LYP) =  -76.4340476905     A.U. after    6 cycles
 Optimization completed.
    -- Stationary point found.

 1\1\GINC-LOCALHOST\FOpt\RB3LYP\6-31+G(d,p)\H2O1\EST863\17-Oct-2012\0\\
 #p rb3lyp/6-31+g(d,p) opt freq polar\\Title Card Required\\0,1\O,0.,0.
 ,0.1152167184\H,0.,0.769475112,-0.4672528592\H,0.,-0.769475112,-0.4672
 528592\\Version=EM64L-G09RevA.01\State=1-A1\HF=-76.4340477\RMSD=2.610e
 -09\RMSF=7.900e-06\Dipole=0.,0.,-0.8635831\Quadrupole=-1.2032073,1.405
 4015,-0.2021943,0.,0.,0.\PG=C02V [C2(O1),SGV(H2)]\\@

 Normal termination of Gaussian 09 at Wed Oct 17 12:53:34 2012.

 ----------------------------------------------------------------------
 #P Geom=AllCheck Guess=TCheck SCRF=Check GenChk RB3LYP/6-31+G(d,p) Fre
 q
 ----------------------------------------------------------------------

 Title Card Required
 -------------------
 Redundant internal coordinates taken from checkpoint file:
 WATERopt.chk
 Charge =  0 Multiplicity = 1

                         Standard orientation:
 ---------------------------------------------------------------------
 Center     Atomic      Atomic             Coordinates (Angstroms)
 Number     Number       Type             X           Y           Z
 ---------------------------------------------------------------------
      1          8           0        0.000000    0.000000    0.116494
      2          1           0        0.000000    0.769475   -0.465976
      3          1           0        0.000000   -0.769475   -0.465976
 ---------------------------------------------------------------------

 SCF Done:  E(RB3LYP) =  -76.4422818137     A.U. after    7 cycles

 The electronic state is 1-A1.
 Alpha  occ. eigenvalues --  -19.17142  -1.02255  -0.54144  -0.40022  -0.32611
 Alpha virt. eigenvalues --    0.03409   0.12020   0.13942   0.14632   0.20671
 Alpha virt. eigenvalues --    0.24713   0.90975   0.99800   1.08281   1.10657
 Alpha virt. eigenvalues --    1.12446   1.22352   1.50293   1.53279   1.62604

 Mulliken atomic charges:
              1
     1  O   -0.771268
     2  H    0.385634
     3  H    0.385634
 Sum of Mulliken atomic charges =   0.00000

 Dipole moment (field-independent basis, Debye):
    X=              0.0000    Y=              0.0000    Z=             -2.4462  Tot=              2.4462
 Quadrupole moment (field-independent basis, Debye-Ang):
   XX=             -7.9427   YY=             -4.2755   ZZ=             -6.5370
   XY=              0.0000   XZ=              0.0000   YZ=              0.0000

  Exact polarizability:   7.550   0.000   8.486   0.000   0.000   7.146
 Approx polarizability:   6.924   0.000   9.341   0.000   0.000   7.404

                     1                      2                      3
                    A1                     A1                     B2
 Frequencies --  1593.5666              3817.0780              3926.7616
 Red. masses --     1.0832                 1.0447                 1.0831
 Frc consts  --     1.6206                 8.9683                 9.8398
 IR Inten    --   122.6745                23.6235               110.8934

 - Thermochemistry -
 -------------------
 Temperature   298.150 Kelvin.  Pressure   1.00000 Atm.
 Atom     1 has atomic number  8 and mass  15.99491

 Molecular mass:    18.01056 amu.
 Principal axes and moments of inertia in atomic units:
                           1         2         3
     Eigenvalues --     2.16877   4.26189   6.43066
           X            0.00000   0.00000   1.00000
           Y            1.00000   0.00000   0.00000
           Z            0.00000   1.00000   0.00000
 This molecule is an asymmetric top.
 Rotational symmetry number  2.
 Rotational temperatures (Kelvin)     39.93679    20.32287    13.46888
 Rotational constants (GHZ):         832.14875   423.46050   280.64633
 Zero-point vibrational energy      55850.1 (Joules/Mol)
                                   13.34849 (Kcal/Mol)
 Vibrational temperatures:   2292.78  5491.92  5649.73
          (Kelvin)

 Zero-point correction=                           0.021272 (Hartree/Particle)
 Thermal correction to Energy=                    0.024108
 Thermal correction to Enthalpy=                  0.025052
 Thermal correction to Gibbs Free Energy=         0.003624
 Sum of electronic and zero-point Energies=            -76.421010
 Sum of electronic and thermal Energies=               -76.418174
 Sum of electronic and thermal Enthalpies=             -76.417230
 Sum of electronic and thermal Free Energies=          -76.438658

                     E (Thermal)             CV                S
                      KCal/Mol        Cal/Mol-Kelvin    Cal/Mol-Kelvin
 Total                   15.128              6.015             45.101
 Electronic               0.000              0.000              0.000
 Translational            0.889              2.981             34.608
 Rotational               0.889              2.981             10.484
 Vibrational             13.351              0.054              0.008

 1\1\GINC-LOCALHOST\Freq\RB3LYP\6-31+G(d,p)\H2O1\EST863\17-Oct-2012\0\\
 #P Geom=AllCheck Guess=TCheck SCRF=Check GenChk RB3LYP/6-31+G(d,p) Fre
 q\\Title Card Required\\0,1\O,0.,0.,0.1152167184\H,0.,0.769475112,-0.4
 672528592\H,0.,-0.769475112,-0.4672528592\\Version=EM64L-G09RevA.01\St
 ate=1-A1\HF=-76.4422818\RMSD=1.239e-09\RMSF=1.376e-03\ZeroPoint=0.0212
 722\Thermal=0.0241081\Dipole=0.,0.,-0.962425\DipoleDeriv=-0.8748281,0.
 ,0.,0.,-0.6625192,0.,0.,0.,-0.5073901,0.437414,0.,0.,0.,0.3312596,0.05
 61168,0.,0.0804955,0.2536951,0.437414,0.,0.,0.,0.3312596,-0.0561168,0.

 Normal termination of Gaussian 09 at Wed Oct 17 12:53:40 2012.
