 Gaussian 09, Revision A.01,
 Gaussian 09:  EM64L-G09RevA.01  8-May-2009

 ----------------------------------------------------------
 #p rb3lyp/6-31+g(d,p) opt freq scrf=(iefpcm,solvent=water)
 ----------------------------------------------------------

 ----
 3D2T
 ----
 Symbolic Z-matrix:
 Charge = -1 Multiplicity = 1

 SCF Done:  E(RB3LYP) =  -925.070161549     A.U. after   16 cycles
 SCF Done:  E(RB3LYP) =  -925.137758037     A.U. after   14 cycles
 SCF Done:  E(RB3LYP) =  -925.177152968     A.U. after   15 cycles
 SCF Done:  E(RB3LYP) =  -925.189201302     A.U. after   13 cycles
 SCF Done:  E(RB3LYP) =  -925.176659861     A.U. after   15 cycles
 SCF Done:  E(RB3LYP) =  -925.190785381     A.U. after   15 cycles
 SCF Done:  E(RB3LYP) =  -925.193041501     A.U. after   15 cycles
 SCF Done:  E(RB3LYP) =  -925.194593884     A.U. after   13 cycles
 SCF Done:  E(RB3LYP) =  -925.193851525     A.U. after   14 cycles
 SCF Done:  E(RB3LYP) =  -925.195847324     A.U. after   13 cycles
 SCF Done:  E(RB3LYP) =  -925.196289932     A.U. after   13 cycles
 SCF Done:  E(RB3LYP) =  -925.196366210     A.U. after   13 cycles
 SCF Done:  E(RB3LYP) =  -925.196554708     A.U. after   12 cycles
 SCF Done:  E(RB3LYP) =  -925.196564672     A.U. after   11 cycles
 SCF Done:  E(RB3LYP) =  -925.196566777     A.U. after   11 cycles
 SCF Done:  E(RB3LYP) =  -925.196567087     A.U. after   11 cycles
 SCF Done:  E(RB3LYP) =  -925.196567313     A.U. after   10 cycles
 Optimization completed.
    -- Stationary point found.
 Normal termination of Gaussian 09 at Tue Oct 30 01:37:54 2012.

 ----------------------------------------------------------------------
 #P Geom=AllCheck Guess=TCheck SCRF=Check GenChk RB3LYP/6-31+G(d,p) Fre
 q
 ----------------------------------------------------------------------

 3D2T
 ----
 Redundant internal coordinates taken from checkpoint file:
 3D2TA-QMMM-insidegauss-ligand.chk
 Charge = -1 Multiplicity = 1

                         Standard orientation:
 ---------------------------------------------------------------------
 Center     Atomic      Atomic             Coordinates (Angstroms)
 Number     Number       Type             X           Y           Z
 ---------------------------------------------------------------------
      1          9           0       -1.286843   -1.700874    1.207431
      2          6           0       -2.037407   -0.784662    0.530654
      3          6           0       -3.403062   -1.031564    0.458012
      4          6           0       -4.181138   -0.089585   -0.200859
      5          9           0       -5.524252   -0.308490   -0.289980
      6          6           0       -3.643985    1.057952   -0.768232
      7          6           0       -2.265548    1.255525   -0.670825
      8          6           0       -1.412279    0.343195   -0.019655
      9          6           0        0.049960    0.589602    0.077311
     10          6           0        0.989573   -0.419663   -0.173944
     11          6           0        2.368059   -0.184102   -0.122188
     12          6           0        3.354070   -1.298439   -0.410086
     13          8           0        2.927670   -2.440414   -0.698079
     14          8           0        4.601521   -0.975970   -0.334223
     15          6           0        0.534597    1.875510    0.394431
     16          6           0        1.898411    2.139135    0.455150
     17          6           0        2.828607    1.118158    0.198421
     18          8           0        4.148918    1.390843    0.261720
     19          1           0       -3.836423   -1.917294    0.907206
     20          1           0       -4.283032    1.768366   -1.280282
     21          1           0       -1.830269    2.138285   -1.127721
     22          1           0        0.664980   -1.420964   -0.433723
     23          1           0       -0.167097    2.676121    0.611211
     24          1           0        2.262011    3.130599    0.708111
     25          1           0        4.585666    0.487116    0.033665
 ---------------------------------------------------------------------

 SCF Done:  E(RB3LYP) =  -925.196567313     A.U. after    1 cycles

 The electronic state is 1-A.
 Alpha  occ. eigenvalues --  -24.73572 -24.73441 -19.16115 -19.11514 -19.10580
 Alpha  occ. eigenvalues --  -10.29436 -10.29352 -10.28846 -10.25586 -10.22170
 Alpha  occ. eigenvalues --  -10.21608 -10.21588 -10.21094 -10.20583 -10.20298
 Alpha  occ. eigenvalues --  -10.19789 -10.19448 -10.19203  -1.23871  -1.23820
 Alpha  occ. eigenvalues --   -1.05510  -1.02847  -0.94801  -0.88777  -0.85621
 Alpha  occ. eigenvalues --   -0.78950  -0.77185  -0.75802  -0.72709  -0.65048
 Alpha  occ. eigenvalues --   -0.64063  -0.62896  -0.59868  -0.57244  -0.55877
 Alpha  occ. eigenvalues --   -0.53141  -0.52193  -0.50434  -0.49849  -0.48892
 Alpha  occ. eigenvalues --   -0.47863  -0.47210  -0.45960  -0.45360  -0.44432
 Alpha  occ. eigenvalues --   -0.43088  -0.42628  -0.42098  -0.41416  -0.40105
 Alpha  occ. eigenvalues --   -0.38802  -0.38574  -0.37761  -0.37584  -0.36739
 Alpha  occ. eigenvalues --   -0.34245  -0.33871  -0.27451  -0.26846  -0.26530
 Alpha  occ. eigenvalues --   -0.25880  -0.25797  -0.24922  -0.21661
 Alpha virt. eigenvalues --   -0.03725  -0.03443  -0.02628   0.00463   0.01135
 Alpha virt. eigenvalues --    0.01665   0.01963   0.03009   0.03166   0.04000
 Alpha virt. eigenvalues --    0.04419   0.04513   0.05217   0.05604   0.05798

 Mulliken atomic charges:
              1
     1  F   -0.360497
     2  C   -0.483206
     3  C    0.225747
     4  C   -0.122461
     5  F   -0.354249
     6  C    0.071053
     7  C   -0.406448
     8  C    0.838188
     9  C    0.261775
    10  C   -0.526492
    11  C    0.391968
    12  C    0.864667
    13  O   -0.699069
    14  O   -0.722536
    15  C   -0.370361
    16  C    0.258653
    17  C   -0.588303
    18  O   -0.641881
    19  H    0.174368
    20  H    0.162545
    21  H    0.152297
    22  H    0.147502
    23  H    0.139567
    24  H    0.141356
    25  H    0.445818
 Sum of Mulliken atomic charges =  -1.00000

 Dipole moment (field-independent basis, Debye):
    X=            -16.9955    Y=              8.0187    Z=              1.1279  Tot=             18.8260
 Quadrupole moment (field-independent basis, Debye-Ang):
   XX=           -186.9555   YY=           -120.4722   ZZ=           -107.5848
   XY=             17.4463   XZ=              7.1115   YZ=             -6.8680

  Exact polarizability: 332.681   5.818 242.992   7.824  -1.495 139.995
 Approx polarizability: 362.991  13.903 287.881  12.162  -5.943 160.135

                     1                      2                      3
                     A                      A                      A
 Frequencies --    36.9636                50.0923                67.0087
 Red. masses --     9.3585                 9.3034                 8.9447
 Frc consts  --     0.0075                 0.0138                 0.0237
 IR Inten    --     1.9891                 0.6827                 3.1170

                     4                      5                      6
                     A                      A                      A
 Frequencies --    89.7672               150.2179               160.2200
 Red. masses --    10.4363                 6.1646                 7.7107
 Frc consts  --     0.0495                 0.0820                 0.1166
 IR Inten    --     1.1328                 0.4315                 3.1142

                     7                      8                      9
                     A                      A                      A
 Frequencies --   212.8183               231.7125               238.6835
 Red. masses --     9.4908                 7.2389                 9.8595
 Frc consts  --     0.2533                 0.2290                 0.3309
 IR Inten    --     4.1812                 0.7586                 1.5005

                    10                     11                     12
                     A                      A                      A
 Frequencies --   283.7731               336.4137               357.9171
 Red. masses --     7.7886                11.8983                 7.3368
 Frc consts  --     0.3695                 0.7934                 0.5538
 IR Inten    --    11.4930                 3.5496                41.5081

                    13                     14                     15
                     A                      A                      A
 Frequencies --   385.9248               415.1301               437.4326
 Red. masses --     7.5206                 5.8285                 3.5068
 Frc consts  --     0.6599                 0.5918                 0.3953
 IR Inten    --    33.0429                 2.0110                 1.7632

                    16                     17                     18
                     A                      A                      A
 Frequencies --   450.0514               482.4367               509.4160
 Red. masses --    10.1499                 3.3053                 6.2246
 Frc consts  --     1.2113                 0.4533                 0.9517
 IR Inten    --     2.6727                 8.3407                 5.7638

                    19                     20                     21
                     A                      A                      A
 Frequencies --   534.1483               546.6149               564.9353
 Red. masses --     8.8759                 6.1543                 4.5281
 Frc consts  --     1.4921                 1.0834                 0.8515
 IR Inten    --    78.1309                 7.7255                 7.6550

                    22                     23                     24
                     A                      A                      A
 Frequencies --   607.9207               616.9106               673.1487
 Red. masses --     4.2519                 3.6451                 6.9152
 Frc consts  --     0.9258                 0.8174                 1.8462
 IR Inten    --    30.6619                 5.0969                18.4400

                    25                     26                     27
                     A                      A                      A
 Frequencies --   707.4197               720.9055               732.8333
 Red. masses --     4.7836                 6.7825                 4.4576
 Frc consts  --     1.4105                 2.0768                 1.4105
 IR Inten    --    14.2639                40.8814                 9.6741

                    28                     29                     30
                     A                      A                      A
 Frequencies --   745.4581               802.9394               815.4157
 Red. masses --     6.5609                 4.9885                 6.8072
 Frc consts  --     2.1481                 1.8949                 2.6667
 IR Inten    --    35.9323                 9.9215                45.1583

                    31                     32                     33
                     A                      A                      A
 Frequencies --   826.3506               844.3724               863.4081
 Red. masses --     1.5239                 1.7015                 1.5183
 Frc consts  --     0.6131                 0.7147                 0.6669
 IR Inten    --    70.0242                43.5788                70.5642

                    34                     35                     36
                     A                      A                      A
 Frequencies --   891.2035               941.3466               967.1480
 Red. masses --     6.9211                 1.4498                 1.3515
 Frc consts  --     3.2388                 0.7569                 0.7448
 IR Inten    --    43.0162                 8.8417                 3.2866

                    37                     38                     39
                     A                      A                      A
 Frequencies --   969.7879               975.2345              1021.6269
 Red. masses --     2.8005                 1.5384                 1.0530
 Frc consts  --     1.5518                 0.8621                 0.6476
 IR Inten    --   117.4038                28.9627               134.7429

                    40                     41                     42
                     A                      A                      A
 Frequencies --  1046.0658              1103.9445              1119.6873
 Red. masses --     3.4432                 2.8226                 1.8139
 Frc consts  --     2.2199                 2.0267                 1.3398
 IR Inten    --     9.0820                 7.3126                97.0623

                    43                     44                     45
                     A                      A                      A
 Frequencies --  1155.2626              1163.2151              1233.5683
 Red. masses --     1.5533                 1.3658                 2.1563
 Frc consts  --     1.2214                 1.0888                 1.9333
 IR Inten    --    77.1001                40.4836               101.2936

                    46                     47                     48
                     A                      A                      A
 Frequencies --  1251.1663              1278.3982              1283.2265
 Red. masses --     1.9463                 2.5992                 3.8127
 Frc consts  --     1.7951                 2.5028                 3.6990
 IR Inten    --    16.6146               176.7651                34.7389

                    49                     50                     51
                     A                      A                      A
 Frequencies --  1302.8234              1323.0167              1338.8685
 Red. masses --     2.5154                 4.7409                 8.0733
 Frc consts  --     2.5155                 4.8893                 8.5266
 IR Inten    --    24.4062               206.5971                19.0816

                    52                     53                     54
                     A                      A                      A
 Frequencies --  1346.7249              1426.1726              1444.3975
 Red. masses --     4.6071                 3.5556                 2.7049
 Frc consts  --     4.9231                 4.2610                 3.3249
 IR Inten    --   519.1076                69.0889               103.7584

                    55                     56                     57
                     A                      A                      A
 Frequencies --  1476.2266              1512.4647              1540.1582
 Red. masses --     3.9428                 2.5363                 3.2052
 Frc consts  --     5.0624                 3.4183                 4.4796
 IR Inten    --   478.2172               712.6535                72.9511

                    58                     59                     60
                     A                      A                      A
 Frequencies --  1599.6623              1629.8106              1643.0500
 Red. masses --     9.0219                 7.9452                 4.0844
 Frc consts  --    13.6021                12.4346                 6.4965
 IR Inten    --   692.8279                53.1936               117.5350

                    61                     62                     63
                     A                      A                      A
 Frequencies --  1654.0416              1674.8806              2643.5913
 Red. masses --     7.0469                 3.2754                 1.0786
 Frc consts  --    11.3590                 5.4136                 4.4412
 IR Inten    --    86.0727               250.9741              1703.5416

                    64                     65                     66
                     A                      A                      A
 Frequencies --  3186.8245              3202.9101              3207.5793
 Red. masses --     1.0876                 1.0946                 1.0894
 Frc consts  --     6.5080                 6.6162                 6.6036
 IR Inten    --    14.4146                20.6517                 7.8429

                    67                     68                     69
                     A                      A                      A
 Frequencies --  3219.7289              3227.5174              3235.1399
 Red. masses --     1.0900                 1.0949                 1.0937
 Frc consts  --     6.6576                 6.7198                 6.7442
 IR Inten    --     2.8111                 4.1139                 0.6416

 - Thermochemistry -
 -------------------
 Temperature   298.150 Kelvin.  Pressure   1.00000 Atm.
 Atom     1 has atomic number  9 and mass  18.99840

 Molecular mass:   249.03633 amu.
 Principal axes and moments of inertia in atomic units:
                           1         2         3
     Eigenvalues --  1760.186218917.34111**********
           X            1.00000   0.00000   0.00225
           Y            0.00000   1.00000   0.00002
           Z           -0.00225  -0.00002   1.00000
 This molecule is an asymmetric top.
 Rotational symmetry number  1.
 Warning -- assumption of classical behavior for rotation
           may cause significant error
 Rotational temperatures (Kelvin)      0.04921     0.00971     0.00852
 Rotational constants (GHZ):           1.02531     0.20239     0.17746
 Zero-point vibrational energy     447016.0 (Joules/Mol)
                                  106.83938 (Kcal/Mol)
 Warning -- explicit consideration of  23 degrees of freedom as
           vibrations may cause significant error
 Vibrational temperatures:     53.18    72.07    96.41   129.15   216.13
          (Kelvin)            230.52   306.20   333.38   343.41   408.29
                              484.02   514.96   555.26   597.28   629.37
                              647.52   694.12   732.94   768.52   786.46
                              812.81   874.66   887.60   968.51  1017.82
                             1037.22  1054.38  1072.55  1155.25  1173.20
                             1188.93  1214.86  1242.25  1282.24  1354.39
                             1391.51  1395.31  1403.14  1469.89  1505.05
                             1588.33  1610.98  1662.16  1673.61  1774.83
                             1800.15  1839.33  1846.27  1874.47  1903.52
                             1926.33  1937.63  2051.94  2078.16  2123.96
                             2176.10  2215.94  2301.55  2344.93  2363.98
                             2379.79  2409.78  3803.53  4585.12  4608.27
                             4614.99  4632.47  4643.67  4654.64

 Zero-point correction=                           0.170259 (Hartree/Particle)
 Thermal correction to Energy=                    0.184224
 Thermal correction to Enthalpy=                  0.185169
 Thermal correction to Gibbs Free Energy=         0.128231
 Sum of electronic and zero-point Energies=           -925.026308
 Sum of electronic and thermal Energies=              -925.012343
 Sum of electronic and thermal Enthalpies=            -925.011399
 Sum of electronic and thermal Free Energies=         -925.068337

                     E (Thermal)             CV                S
                      KCal/Mol        Cal/Mol-Kelvin    Cal/Mol-Kelvin
 Total                  115.603             54.286            119.836
 Electronic               0.000              0.000              0.000
 Translational            0.889              2.981             42.438
 Rotational               0.889              2.981             33.434
 Vibrational            113.825             48.325             43.964
 Vibration     1          0.594              1.982              5.416
 Vibration     2          0.595              1.978              4.814
 Vibration     3          0.598              1.970              4.239
 Vibration     4          0.602              1.956              3.665
 Vibration     5          0.618              1.902              2.669
 Vibration     6          0.622              1.891              2.547
 Vibration     7          0.644              1.821              2.019
 Vibration     8          0.653              1.792              1.866
 Vibration     9          0.657              1.781              1.813
 Vibration    10          0.682              1.704              1.511
 Vibration    11          0.717              1.603              1.229
 Vibration    12          0.733              1.559              1.131
 Vibration    13          0.755              1.500              1.016
 Vibration    14          0.779              1.437              0.909
 Vibration    15          0.798              1.389              0.835
 Vibration    16          0.809              1.361              0.796
 Vibration    17          0.839              1.289              0.704
 Vibration    18          0.865              1.229              0.635
 Vibration    19          0.889              1.174              0.578
 Vibration    20          0.902              1.147              0.551
 Vibration    21          0.921              1.107              0.514
 Vibration    22          0.967              1.015              0.436
 Vibration    23          0.977              0.996              0.421

 Optimization completed.
    -- Stationary point found.
 Normal termination of Gaussian 09 at Tue Oct 30 04:51:46 2012.
